<?xml version="1.0" encoding="UTF-8"?>

<!-- generated on 2025-05-06 20:27:29 by Eclipse SUMO sumo Version 1.22.0
<sumoConfiguration xmlns:xsi="http://www.w3.org/2001/XMLSchema-instance" xsi:noNamespaceSchemaLocation="http://sumo.dlr.de/xsd/sumoConfiguration.xsd">

    <input>
        <net-file value="/Users/coexistence/RouteRL/routerl/environment/../networks/cologne/cologne.net.xml"/>
        <route-files value="/Users/coexistence/RouteRL/routerl/environment/../networks/cologne/route.rou.xml"/>
        <additional-files value="/Users/coexistence/RouteRL/routerl/environment/../networks/cologne/det.add.xml"/>
    </input>

    <output>
        <fcd-output value="/Users/coexistence/RouteRL/routerl/environment/../networks/cologne/fcd.xml"/>
        <summary-output value="/Users/coexistence/RouteRL/routerl/environment/../networks/cologne/summary.xml"/>
        <tripinfo-output value="/Users/coexistence/RouteRL/routerl/environment/../networks/cologne/tripinfo.xml"/>
    </output>

    <processing>
        <time-to-teleport value="-1"/>
    </processing>

    <report>
        <no-step-log value="true"/>
    </report>

    <random_number>
        <seed value="42"/>
    </random_number>

</sumoConfiguration>
-->

<fcd-export xmlns:xsi="http://www.w3.org/2001/XMLSchema-instance" xsi:noNamespaceSchemaLocation="http://sumo.dlr.de/xsd/fcd_file.xsd">
    <timestep time="0.00"/>
    <timestep time="1.00"/>
    <timestep time="2.00"/>
    <timestep time="3.00"/>
    <timestep time="4.00"/>
    <timestep time="5.00"/>
    <timestep time="6.00"/>
    <timestep time="7.00"/>
    <timestep time="8.00"/>
    <timestep time="9.00"/>
    <timestep time="10.00"/>
    <timestep time="11.00"/>
    <timestep time="12.00"/>
    <timestep time="13.00"/>
    <timestep time="14.00"/>
    <timestep time="15.00"/>
    <timestep time="16.00"/>
    <timestep time="17.00"/>
    <timestep time="18.00"/>
    <timestep time="19.00"/>
    <timestep time="20.00"/>
    <timestep time="21.00"/>
    <timestep time="22.00"/>
    <timestep time="23.00"/>
    <timestep time="24.00"/>
    <timestep time="25.00"/>
    <timestep time="26.00"/>
    <timestep time="27.00"/>
    <timestep time="28.00"/>
    <timestep time="29.00"/>
    <timestep time="30.00"/>
    <timestep time="31.00">
        <vehicle id="4" x="13836.85" y="16800.82" angle="353.39" type="AV" speed="0.00" pos="5.10" lane="-4936412_0" slope="0.00"/>
    </timestep>
    <timestep time="32.00">
        <vehicle id="4" x="13836.68" y="16802.32" angle="353.39" type="AV" speed="1.51" pos="6.61" lane="-4936412_0" slope="0.00"/>
    </timestep>
    <timestep time="33.00">
        <vehicle id="4" x="13836.33" y="16805.34" angle="353.39" type="AV" speed="3.04" pos="9.66" lane="-4936412_0" slope="0.00"/>
    </timestep>
    <timestep time="34.00">
        <vehicle id="4" x="13835.82" y="16809.70" angle="353.39" type="AV" speed="4.38" pos="14.04" lane="-4936412_0" slope="0.00"/>
    </timestep>
    <timestep time="35.00">
        <vehicle id="4" x="13835.12" y="16815.77" angle="353.39" type="AV" speed="6.11" pos="20.15" lane="-4936412_0" slope="0.00"/>
    </timestep>
    <timestep time="36.00">
        <vehicle id="4" x="13834.18" y="16823.84" angle="353.39" type="AV" speed="8.13" pos="28.28" lane="-4936412_0" slope="0.00"/>
    </timestep>
    <timestep time="37.00">
        <vehicle id="4" x="13832.93" y="16834.34" angle="352.96" type="AV" speed="10.57" pos="4.81" lane=":32319828_1_0" slope="0.00"/>
    </timestep>
    <timestep time="38.00">
        <vehicle id="4" x="13831.35" y="16846.76" angle="352.53" type="AV" speed="12.52" pos="6.12" lane="23686088#0_0" slope="0.00"/>
    </timestep>
    <timestep time="39.00">
        <vehicle id="4" x="13829.67" y="16859.56" angle="352.53" type="AV" speed="12.91" pos="19.03" lane="23686088#0_0" slope="0.00"/>
        <vehicle id="60" x="14284.79" y="17392.33" angle="187.31" type="Human" speed="0.00" pos="5.10" lane="-25166682#0_0" slope="0.00"/>
    </timestep>
    <timestep time="40.00">
        <vehicle id="4" x="13828.12" y="16871.34" angle="352.53" type="AV" speed="11.88" pos="30.91" lane="23686088#0_0" slope="0.00"/>
        <vehicle id="60" x="14284.51" y="17390.15" angle="187.31" type="Human" speed="2.20" pos="7.30" lane="-25166682#0_0" slope="0.00"/>
    </timestep>
    <timestep time="41.00">
        <vehicle id="4" x="13826.45" y="16883.97" angle="352.35" type="AV" speed="12.74" pos="6.86" lane=":252016281_2_0" slope="0.00"/>
        <vehicle id="60" x="14283.99" y="17386.07" angle="187.31" type="Human" speed="4.12" pos="11.42" lane="-25166682#0_0" slope="0.00"/>
    </timestep>
    <timestep time="42.00">
        <vehicle id="4" x="13824.84" y="16895.85" angle="352.24" type="AV" speed="11.98" pos="7.65" lane="23686088#1_0" slope="0.00"/>
        <vehicle id="60" x="14283.27" y="17380.45" angle="187.31" type="Human" speed="5.66" pos="17.08" lane="-25166682#0_0" slope="0.00"/>
        <vehicle id="94" x="14284.79" y="17392.33" angle="187.31" type="Human" speed="0.00" pos="5.10" lane="-25166682#0_0" slope="0.00"/>
    </timestep>
    <timestep time="43.00">
        <vehicle id="4" x="13823.28" y="16907.77" angle="353.01" type="AV" speed="12.02" pos="3.16" lane=":26716586_0_0" slope="0.00"/>
        <vehicle id="60" x="14282.22" y="17372.30" angle="187.31" type="Human" speed="8.22" pos="25.30" lane="-25166682#0_0" slope="0.00"/>
        <vehicle id="94" x="14284.52" y="17390.19" angle="187.31" type="Human" speed="2.16" pos="7.26" lane="-25166682#0_0" slope="0.00"/>
    </timestep>
    <timestep time="44.00">
        <vehicle id="4" x="13821.95" y="16919.79" angle="353.87" type="AV" speed="12.10" pos="7.00" lane="133081987#0_0" slope="0.00"/>
        <vehicle id="60" x="14280.96" y="17362.48" angle="187.31" type="Human" speed="9.90" pos="35.20" lane="-25166682#0_0" slope="0.00"/>
        <vehicle id="94" x="14283.94" y="17385.71" angle="187.31" type="Human" speed="4.51" pos="11.78" lane="-25166682#0_0" slope="0.00"/>
    </timestep>
    <timestep time="45.00">
        <vehicle id="4" x="13820.55" y="16932.78" angle="353.83" type="AV" speed="13.06" pos="20.06" lane="133081987#0_0" slope="0.00"/>
        <vehicle id="60" x="14279.43" y="17350.55" angle="187.31" type="Human" speed="12.03" pos="47.23" lane="-25166682#0_0" slope="0.00"/>
        <vehicle id="94" x="14283.06" y="17378.80" angle="187.31" type="Human" speed="6.97" pos="18.75" lane="-25166682#0_0" slope="0.00"/>
    </timestep>
    <timestep time="46.00">
        <vehicle id="4" x="13819.14" y="16945.44" angle="353.42" type="AV" speed="12.75" pos="32.81" lane="133081987#0_0" slope="0.00"/>
        <vehicle id="52" x="14284.79" y="17392.33" angle="187.31" type="AV" speed="0.00" pos="5.10" lane="-25166682#0_0" slope="0.00"/>
        <vehicle id="60" x="14277.88" y="17338.40" angle="187.31" type="Human" speed="12.25" pos="59.48" lane="-25166682#0_0" slope="0.00"/>
        <vehicle id="94" x="14282.00" y="17370.55" angle="187.31" type="Human" speed="8.32" pos="27.07" lane="-25166682#0_0" slope="0.00"/>
        <vehicle id="95" x="13836.85" y="16800.82" angle="353.39" type="Human" speed="0.00" pos="5.10" lane="-4936412_0" slope="0.00"/>
    </timestep>
    <timestep time="47.00">
        <vehicle id="4" x="13817.55" y="16958.08" angle="352.81" type="AV" speed="12.74" pos="45.55" lane="133081987#0_0" slope="0.00"/>
        <vehicle id="52" x="14284.58" y="17390.71" angle="187.31" type="AV" speed="1.64" pos="6.74" lane="-25166682#0_0" slope="0.00"/>
        <vehicle id="60" x="14276.79" y="17329.93" angle="187.31" type="Human" speed="8.54" pos="68.02" lane="-25166682#0_0" slope="0.00"/>
        <vehicle id="94" x="14280.75" y="17360.83" angle="187.31" type="Human" speed="9.79" pos="36.86" lane="-25166682#0_0" slope="0.00"/>
        <vehicle id="95" x="13836.60" y="16803.03" angle="353.39" type="Human" speed="2.23" pos="7.33" lane="-4936412_0" slope="0.00"/>
    </timestep>
    <timestep time="48.00">
        <vehicle id="4" x="13816.04" y="16970.05" angle="352.81" type="AV" speed="12.07" pos="57.61" lane="133081987#0_0" slope="0.00"/>
        <vehicle id="52" x="14284.06" y="17386.61" angle="187.31" type="AV" speed="4.13" pos="10.87" lane="-25166682#0_0" slope="0.00"/>
        <vehicle id="60" x="14276.28" y="17325.92" angle="187.31" type="Human" speed="4.04" pos="72.06" lane="-25166682#0_0" slope="0.00"/>
        <vehicle id="94" x="14279.25" y="17349.13" angle="187.31" type="Human" speed="11.80" pos="48.66" lane="-25166682#0_0" slope="0.00"/>
        <vehicle id="95" x="13836.11" y="16807.23" angle="353.39" type="Human" speed="4.23" pos="11.56" lane="-4936412_0" slope="0.00"/>
    </timestep>
    <timestep time="49.00">
        <vehicle id="4" x="13814.53" y="16982.01" angle="352.81" type="AV" speed="12.05" pos="69.67" lane="133081987#0_0" slope="0.00"/>
        <vehicle id="52" x="14283.23" y="17380.13" angle="187.31" type="AV" speed="6.53" pos="17.40" lane="-25166682#0_0" slope="0.00"/>
        <vehicle id="60" x="14273.94" y="17320.05" angle="206.23" type="Human" speed="6.54" pos="4.68" lane=":274333875_0_0" slope="0.00"/>
        <vehicle id="94" x="14278.13" y="17340.39" angle="187.31" type="Human" speed="8.81" pos="57.47" lane="-25166682#0_0" slope="0.00"/>
        <vehicle id="95" x="13835.44" y="16813.02" angle="353.39" type="Human" speed="5.82" pos="17.38" lane="-4936412_0" slope="0.00"/>
    </timestep>
    <timestep time="50.00">
        <vehicle id="4" x="13812.98" y="16994.24" angle="352.77" type="AV" speed="12.33" pos="82.00" lane="133081987#0_0" slope="0.00"/>
        <vehicle id="5" x="14284.79" y="17392.33" angle="187.31" type="AV" speed="0.00" pos="5.10" lane="-25166682#0_0" slope="0.00"/>
        <vehicle id="52" x="14282.07" y="17371.12" angle="187.31" type="AV" speed="9.09" pos="26.49" lane="-25166682#0_0" slope="0.00"/>
        <vehicle id="60" x="14265.26" y="17320.48" angle="280.94" type="Human" speed="8.90" pos="4.54" lane="-23648008#0_0" slope="0.00"/>
        <vehicle id="94" x="14277.04" y="17331.86" angle="187.31" type="Human" speed="8.60" pos="66.07" lane="-25166682#0_0" slope="0.00"/>
        <vehicle id="95" x="13834.50" y="16821.08" angle="353.39" type="Human" speed="8.11" pos="25.50" lane="-4936412_0" slope="0.00"/>
        <vehicle id="96" x="13836.85" y="16800.82" angle="353.39" type="Human" speed="0.00" pos="5.10" lane="-4936412_0" slope="0.00"/>
    </timestep>
    <timestep time="51.00">
        <vehicle id="4" x="13811.72" y="17007.21" angle="354.94" type="AV" speed="13.03" pos="2.32" lane="133081987#3_0" slope="0.00"/>
        <vehicle id="5" x="14284.57" y="17390.60" angle="187.31" type="AV" speed="1.75" pos="6.85" lane="-25166682#0_0" slope="0.00"/>
        <vehicle id="52" x="14280.59" y="17359.60" angle="187.31" type="AV" speed="11.62" pos="38.11" lane="-25166682#0_0" slope="0.00"/>
        <vehicle id="60" x="14255.10" y="17322.59" angle="281.71" type="Human" speed="10.38" pos="14.91" lane="-23648008#0_0" slope="0.00"/>
        <vehicle id="94" x="14276.29" y="17326.00" angle="187.31" type="Human" speed="5.91" pos="71.98" lane="-25166682#0_0" slope="0.00"/>
        <vehicle id="95" x="13833.30" y="16831.34" angle="353.23" type="Human" speed="10.33" pos="1.79" lane=":32319828_1_0" slope="0.00"/>
        <vehicle id="96" x="13836.57" y="16803.25" angle="353.39" type="Human" speed="2.45" pos="7.55" lane="-4936412_0" slope="0.00"/>
    </timestep>
    <timestep time="52.00">
        <vehicle id="4" x="13810.77" y="17019.86" angle="355.66" type="AV" speed="12.68" pos="15.01" lane="133081987#3_0" slope="0.00"/>
        <vehicle id="5" x="14284.03" y="17386.36" angle="187.31" type="AV" speed="4.27" pos="11.12" lane="-25166682#0_0" slope="0.00"/>
        <vehicle id="52" x="14279.01" y="17347.24" angle="187.31" type="AV" speed="12.45" pos="50.56" lane="-25166682#0_0" slope="0.00"/>
        <vehicle id="60" x="14242.63" y="17325.17" angle="281.71" type="Human" speed="12.74" pos="27.65" lane="-23648008#0_0" slope="0.00"/>
        <vehicle id="94" x="14272.48" y="17319.52" angle="223.68" type="Human" speed="8.17" pos="6.23" lane=":274333875_0_0" slope="0.00"/>
        <vehicle id="95" x="13831.80" y="16843.32" angle="352.72" type="Human" speed="12.07" pos="2.64" lane="23686088#0_0" slope="0.00"/>
        <vehicle id="96" x="13836.14" y="16807.00" angle="353.39" type="Human" speed="3.78" pos="11.32" lane="-4936412_0" slope="0.00"/>
    </timestep>
    <timestep time="53.00">
        <vehicle id="4" x="13809.85" y="17031.97" angle="355.66" type="AV" speed="12.14" pos="27.14" lane="133081987#3_0" slope="0.00"/>
        <vehicle id="5" x="14283.26" y="17380.39" angle="187.31" type="AV" speed="6.02" pos="17.14" lane="-25166682#0_0" slope="0.00"/>
        <vehicle id="52" x="14277.59" y="17336.15" angle="187.31" type="AV" speed="11.19" pos="61.75" lane="-25166682#0_0" slope="0.00"/>
        <vehicle id="60" x="14228.14" y="17328.17" angle="281.71" type="Human" speed="14.80" pos="42.45" lane="-23648008#0_0" slope="0.00"/>
        <vehicle id="70" x="13836.85" y="16800.82" angle="353.39" type="AV" speed="0.00" pos="5.10" lane="-4936412_0" slope="0.00"/>
        <vehicle id="94" x="14262.87" y="17320.98" angle="281.71" type="Human" speed="9.78" pos="6.98" lane="-23648008#0_0" slope="0.00"/>
        <vehicle id="95" x="13830.29" y="16854.84" angle="352.53" type="Human" speed="11.62" pos="14.26" lane="23686088#0_0" slope="0.00"/>
        <vehicle id="96" x="13835.48" y="16812.66" angle="353.39" type="Human" speed="5.70" pos="17.02" lane="-4936412_0" slope="0.00"/>
    </timestep>
    <timestep time="54.00">
        <vehicle id="4" x="13808.94" y="17043.87" angle="355.66" type="AV" speed="11.94" pos="39.08" lane="133081987#3_0" slope="0.00"/>
        <vehicle id="5" x="14282.27" y="17372.71" angle="187.31" type="AV" speed="7.75" pos="24.89" lane="-25166682#0_0" slope="0.00"/>
        <vehicle id="52" x="14276.69" y="17329.12" angle="187.31" type="AV" speed="7.09" pos="68.84" lane="-25166682#0_0" slope="0.00"/>
        <vehicle id="60" x="14214.67" y="17330.96" angle="281.71" type="Human" speed="13.75" pos="56.20" lane="-23648008#0_0" slope="0.00"/>
        <vehicle id="70" x="13836.56" y="16803.32" angle="353.39" type="AV" speed="2.52" pos="7.62" lane="-4936412_0" slope="0.00"/>
        <vehicle id="84" x="14284.79" y="17392.33" angle="187.31" type="Human" speed="0.00" pos="5.10" lane="-25166682#0_0" slope="0.00"/>
        <vehicle id="94" x="14251.44" y="17323.35" angle="281.71" type="Human" speed="11.68" pos="18.66" lane="-23648008#0_0" slope="0.00"/>
        <vehicle id="95" x="13828.75" y="16866.59" angle="352.53" type="Human" speed="11.85" pos="26.12" lane="23686088#0_0" slope="0.00"/>
        <vehicle id="96" x="13834.66" y="16819.71" angle="353.39" type="Human" speed="7.09" pos="24.12" lane="-4936412_0" slope="0.00"/>
    </timestep>
    <timestep time="55.00">
        <vehicle id="4" x="13807.97" y="17056.76" angle="355.66" type="AV" speed="12.93" pos="52.01" lane="133081987#3_0" slope="0.00"/>
        <vehicle id="5" x="14281.08" y="17363.39" angle="187.31" type="AV" speed="9.39" pos="34.28" lane="-25166682#0_0" slope="0.00"/>
        <vehicle id="52" x="14276.11" y="17324.63" angle="187.31" type="AV" speed="4.53" pos="73.37" lane="-25166682#0_0" slope="0.00"/>
        <vehicle id="60" x="14200.73" y="17333.85" angle="281.71" type="Human" speed="14.24" pos="70.44" lane="-23648008#0_0" slope="0.00"/>
        <vehicle id="70" x="13835.99" y="16808.29" angle="353.39" type="AV" speed="5.01" pos="12.62" lane="-4936412_0" slope="0.00"/>
        <vehicle id="84" x="14284.60" y="17390.83" angle="187.31" type="Human" speed="1.52" pos="6.62" lane="-25166682#0_0" slope="0.00"/>
        <vehicle id="94" x="14238.08" y="17326.11" angle="281.71" type="Human" speed="13.64" pos="32.30" lane="-23648008#0_0" slope="0.00"/>
        <vehicle id="95" x="13827.25" y="16877.99" angle="352.50" type="Human" speed="11.50" pos="0.83" lane=":252016281_2_0" slope="0.00"/>
        <vehicle id="96" x="13833.58" y="16829.08" angle="353.39" type="Human" speed="9.43" pos="33.54" lane="-4936412_0" slope="0.00"/>
    </timestep>
    <timestep time="56.00">
        <vehicle id="4" x="13806.91" y="17068.94" angle="354.96" type="AV" speed="12.22" pos="64.23" lane="133081987#3_0" slope="0.00"/>
        <vehicle id="5" x="14279.63" y="17352.07" angle="187.31" type="AV" speed="11.42" pos="45.70" lane="-25166682#0_0" slope="0.00"/>
        <vehicle id="52" x="14276.97" y="17317.73" angle="169.22" type="AV" speed="7.07" pos="6.51" lane=":274333875_1_0" slope="0.00"/>
        <vehicle id="60" x="14188.15" y="17338.42" angle="301.49" type="Human" speed="13.64" pos="8.18" lane=":280120513_3_0" slope="0.00"/>
        <vehicle id="70" x="13835.22" y="16814.93" angle="353.39" type="AV" speed="6.68" pos="19.30" lane="-4936412_0" slope="0.00"/>
        <vehicle id="84" x="14284.16" y="17387.44" angle="187.31" type="Human" speed="3.41" pos="10.03" lane="-25166682#0_0" slope="0.00"/>
        <vehicle id="94" x="14222.99" y="17329.24" angle="281.71" type="Human" speed="15.42" pos="47.71" lane="-23648008#0_0" slope="0.00"/>
        <vehicle id="95" x="13825.62" y="16890.08" angle="352.31" type="Human" speed="12.20" pos="1.83" lane="23686088#1_0" slope="0.00"/>
        <vehicle id="96" x="13832.16" y="16840.57" angle="352.94" type="Human" speed="11.58" pos="11.09" lane=":32319828_1_0" slope="0.00"/>
    </timestep>
    <timestep time="57.00">
        <vehicle id="4" x="13805.82" y="17081.05" angle="354.84" type="AV" speed="12.16" pos="76.39" lane="133081987#3_0" slope="0.00"/>
        <vehicle id="5" x="14278.04" y="17339.68" angle="187.31" type="AV" speed="12.50" pos="58.19" lane="-25166682#0_0" slope="0.00"/>
        <vehicle id="52" x="14284.86" y="17313.14" angle="107.33" type="AV" speed="9.53" pos="1.73" lane="23648008#1_0" slope="0.00"/>
        <vehicle id="60" x="14187.90" y="17352.24" angle="6.24" type="Human" speed="14.24" pos="10.02" lane="-297047307_0" slope="0.00"/>
        <vehicle id="70" x="13834.18" y="16823.87" angle="353.39" type="AV" speed="9.00" pos="28.30" lane="-4936412_0" slope="0.00"/>
        <vehicle id="71" x="14284.79" y="17392.33" angle="187.31" type="Human" speed="0.00" pos="5.10" lane="-25166682#0_0" slope="0.00"/>
        <vehicle id="84" x="14283.55" y="17382.63" angle="187.31" type="Human" speed="4.85" pos="14.88" lane="-25166682#0_0" slope="0.00"/>
        <vehicle id="94" x="14207.19" y="17332.51" angle="281.71" type="Human" speed="16.13" pos="63.84" lane="-23648008#0_0" slope="0.00"/>
        <vehicle id="95" x="13824.13" y="16901.04" angle="352.24" type="Human" speed="11.05" pos="12.88" lane="23686088#1_0" slope="0.00"/>
        <vehicle id="96" x="13830.35" y="16854.34" angle="352.53" type="Human" speed="13.88" pos="13.76" lane="23686088#0_0" slope="0.00"/>
    </timestep>
    <timestep time="58.00">
        <vehicle id="1" x="13836.85" y="16800.82" angle="353.39" type="AV" speed="0.00" pos="5.10" lane="-4936412_0" slope="0.00"/>
        <vehicle id="4" x="13804.70" y="17093.39" angle="354.80" type="AV" speed="12.39" pos="88.78" lane="133081987#3_0" slope="0.00"/>
        <vehicle id="5" x="14276.93" y="17331.00" angle="187.31" type="AV" speed="8.75" pos="66.94" lane="-25166682#0_0" slope="0.00"/>
        <vehicle id="52" x="14295.95" y="17310.83" angle="101.78" type="AV" speed="11.33" pos="13.06" lane="23648008#1_0" slope="0.00"/>
        <vehicle id="60" x="14189.43" y="17366.21" angle="6.24" type="Human" speed="14.05" pos="24.07" lane="-297047307_0" slope="0.00"/>
        <vehicle id="70" x="13832.82" y="16835.23" angle="352.94" type="AV" speed="11.44" pos="5.72" lane=":32319828_1_0" slope="0.00"/>
        <vehicle id="71" x="14284.55" y="17390.48" angle="187.31" type="Human" speed="1.87" pos="6.97" lane="-25166682#0_0" slope="0.00"/>
        <vehicle id="84" x="14282.75" y="17376.42" angle="187.31" type="Human" speed="6.27" pos="21.15" lane="-25166682#0_0" slope="0.00"/>
        <vehicle id="94" x="14191.77" y="17336.02" angle="285.24" type="Human" speed="15.83" pos="3.77" lane=":280120513_3_0" slope="0.00"/>
        <vehicle id="95" x="13822.78" y="16912.16" angle="353.46" type="Human" speed="11.21" pos="7.59" lane=":26716586_0_0" slope="0.00"/>
        <vehicle id="96" x="13828.41" y="16869.16" angle="352.53" type="Human" speed="14.95" pos="28.71" lane="23686088#0_0" slope="0.00"/>
    </timestep>
    <timestep time="59.00">
        <vehicle id="1" x="13836.60" y="16803.01" angle="353.39" type="AV" speed="2.21" pos="7.31" lane="-4936412_0" slope="0.00"/>
        <vehicle id="4" x="13803.59" y="17105.63" angle="354.87" type="AV" speed="12.40" pos="1.14" lane="133081985#0_0" slope="0.00"/>
        <vehicle id="5" x="14276.32" y="17326.29" angle="187.31" type="AV" speed="4.75" pos="71.69" lane="-25166682#0_0" slope="0.00"/>
        <vehicle id="52" x="14302.64" y="17309.43" angle="101.78" type="AV" speed="6.83" pos="19.89" lane="23648008#1_0" slope="0.00"/>
        <vehicle id="60" x="14190.98" y="17380.36" angle="6.25" type="Human" speed="14.23" pos="38.31" lane="-297047307_0" slope="0.00"/>
        <vehicle id="70" x="13831.04" y="16849.07" angle="352.53" type="AV" speed="13.95" pos="8.44" lane="23686088#0_0" slope="0.00"/>
        <vehicle id="71" x="14284.02" y="17386.32" angle="187.31" type="Human" speed="4.19" pos="11.16" lane="-25166682#0_0" slope="0.00"/>
        <vehicle id="84" x="14281.75" y="17368.63" angle="187.31" type="Human" speed="7.85" pos="29.00" lane="-25166682#0_0" slope="0.00"/>
        <vehicle id="94" x="14187.57" y="17349.25" angle="6.24" type="Human" speed="15.63" pos="7.01" lane="-297047307_0" slope="0.00"/>
        <vehicle id="95" x="13821.59" y="16923.14" angle="353.87" type="Human" speed="11.04" pos="10.37" lane="133081987#0_0" slope="0.00"/>
        <vehicle id="96" x="13826.59" y="16882.90" angle="352.35" type="Human" speed="13.86" pos="5.78" lane=":252016281_2_0" slope="0.00"/>
    </timestep>
    <timestep time="60.00">
        <vehicle id="1" x="13836.12" y="16807.10" angle="353.39" type="AV" speed="4.11" pos="11.42" lane="-4936412_0" slope="0.00"/>
        <vehicle id="4" x="13802.52" y="17118.19" angle="355.13" type="AV" speed="12.61" pos="13.75" lane="133081985#0_0" slope="0.00"/>
        <vehicle id="5" x="14274.11" y="17320.14" angle="204.11" type="AV" speed="6.71" pos="4.48" lane=":274333875_0_0" slope="0.00"/>
        <vehicle id="52" x="14305.94" y="17309.29" angle="95.39" type="AV" speed="3.43" pos="0.98" lane=":3302422976_8_0" slope="0.00"/>
        <vehicle id="60" x="14192.14" y="17391.01" angle="6.25" type="Human" speed="10.71" pos="49.02" lane="-297047307_0" slope="0.00"/>
        <vehicle id="70" x="13829.06" y="16864.23" angle="352.53" type="AV" speed="15.29" pos="23.73" lane="23686088#0_0" slope="0.00"/>
        <vehicle id="71" x="14283.31" y="17380.75" angle="187.31" type="Human" speed="5.62" pos="16.78" lane="-25166682#0_0" slope="0.00"/>
        <vehicle id="84" x="14280.55" y="17359.29" angle="187.31" type="Human" speed="9.41" pos="38.41" lane="-25166682#0_0" slope="0.00"/>
        <vehicle id="94" x="14189.23" y="17364.44" angle="6.24" type="Human" speed="15.29" pos="22.30" lane="-297047307_0" slope="0.00"/>
        <vehicle id="95" x="13820.41" y="16934.12" angle="353.81" type="Human" speed="11.05" pos="21.42" lane="133081987#0_0" slope="0.00"/>
        <vehicle id="96" x="13824.68" y="16897.01" angle="352.24" type="Human" speed="14.24" pos="8.82" lane="23686088#1_0" slope="0.00"/>
    </timestep>
    <timestep time="61.00">
        <vehicle id="1" x="13835.40" y="16813.32" angle="353.39" type="AV" speed="6.26" pos="17.68" lane="-4936412_0" slope="0.00"/>
        <vehicle id="4" x="13801.43" y="17130.97" angle="355.13" type="AV" speed="12.84" pos="26.59" lane="133081985#0_0" slope="0.00"/>
        <vehicle id="5" x="14265.54" y="17320.42" angle="280.47" type="AV" speed="8.81" pos="4.25" lane="-23648008#0_0" slope="0.00"/>
        <vehicle id="52" x="14304.68" y="17312.28" angle="341.73" type="AV" speed="4.74" pos="1.03" lane="-23648008#1_0" slope="0.00"/>
        <vehicle id="60" x="14192.79" y="17397.27" angle="5.85" type="Human" speed="6.31" pos="0.17" lane=":256190139_4_0" slope="0.00"/>
        <vehicle id="70" x="13827.08" y="16879.22" angle="352.46" type="AV" speed="15.13" pos="2.07" lane=":252016281_2_0" slope="0.00"/>
        <vehicle id="71" x="14282.37" y="17373.47" angle="187.31" type="Human" speed="7.34" pos="24.12" lane="-25166682#0_0" slope="0.00"/>
        <vehicle id="84" x="14279.15" y="17348.32" angle="187.31" type="Human" speed="11.07" pos="49.48" lane="-25166682#0_0" slope="0.00"/>
        <vehicle id="94" x="14190.61" y="17377.00" angle="6.24" type="Human" speed="12.63" pos="34.92" lane="-297047307_0" slope="0.00"/>
        <vehicle id="95" x="13819.13" y="16945.59" angle="353.39" type="Human" speed="11.54" pos="32.96" lane="133081987#0_0" slope="0.00"/>
        <vehicle id="96" x="13822.84" y="16911.65" angle="353.46" type="Human" speed="14.76" pos="7.07" lane=":26716586_0_0" slope="0.00"/>
        <vehicle id="97" x="13836.85" y="16800.82" angle="353.39" type="Human" speed="0.00" pos="5.10" lane="-4936412_0" slope="0.00"/>
    </timestep>
    <timestep time="62.00">
        <vehicle id="1" x="13834.45" y="16821.50" angle="353.39" type="AV" speed="8.24" pos="25.92" lane="-4936412_0" slope="0.00"/>
        <vehicle id="4" x="13800.34" y="17143.87" angle="355.27" type="AV" speed="12.95" pos="3.03" lane=":252016271_2_0" slope="0.00"/>
        <vehicle id="5" x="14255.24" y="17322.56" angle="281.71" type="AV" speed="10.52" pos="14.77" lane="-23648008#0_0" slope="0.00"/>
        <vehicle id="52" x="14297.55" y="17313.77" angle="281.78" type="AV" speed="7.29" pos="8.32" lane="-23648008#1_0" slope="0.00"/>
        <vehicle id="60" x="14187.34" y="17402.50" angle="293.61" type="Human" speed="8.57" pos="4.79" lane=":256190139_7_0" slope="0.00"/>
        <vehicle id="70" x="13825.04" y="16894.36" angle="352.24" type="AV" speed="15.27" pos="6.15" lane="23686088#1_0" slope="0.00"/>
        <vehicle id="71" x="14281.25" y="17364.73" angle="187.31" type="Human" speed="8.81" pos="32.93" lane="-25166682#0_0" slope="0.00"/>
        <vehicle id="84" x="14277.60" y="17336.23" angle="187.31" type="Human" speed="12.19" pos="61.67" lane="-25166682#0_0" slope="0.00"/>
        <vehicle id="94" x="14191.60" y="17386.04" angle="6.25" type="Human" speed="9.10" pos="44.03" lane="-297047307_0" slope="0.00"/>
        <vehicle id="95" x="13817.71" y="16956.79" angle="352.81" type="Human" speed="11.29" pos="44.25" lane="133081987#0_0" slope="0.00"/>
        <vehicle id="96" x="13821.30" y="16925.82" angle="353.87" type="Human" speed="14.25" pos="13.07" lane="133081987#0_0" slope="0.00"/>
        <vehicle id="97" x="13836.69" y="16802.22" angle="353.39" type="Human" speed="1.42" pos="6.52" lane="-4936412_0" slope="0.00"/>
    </timestep>
    <timestep time="63.00">
        <vehicle id="1" x="13833.28" y="16831.53" angle="353.21" type="AV" speed="10.09" pos="1.98" lane=":32319828_1_0" slope="0.00"/>
        <vehicle id="4" x="13799.39" y="17155.96" angle="355.61" type="AV" speed="12.12" pos="4.89" lane="133081985#1_0" slope="0.00"/>
        <vehicle id="5" x="14243.59" y="17324.97" angle="281.71" type="AV" speed="11.90" pos="26.66" lane="-23648008#0_0" slope="0.00"/>
        <vehicle id="52" x="14288.56" y="17315.64" angle="281.78" type="AV" speed="9.19" pos="17.51" lane="-23648008#1_0" slope="0.00"/>
        <vehicle id="60" x="14179.23" y="17402.71" angle="269.86" type="Human" speed="8.12" pos="5.67" lane="22959550#0_0" slope="0.00"/>
        <vehicle id="70" x="13823.09" y="16909.41" angle="353.41" type="AV" speed="15.17" pos="4.81" lane=":26716586_0_0" slope="0.00"/>
        <vehicle id="71" x="14279.94" y="17354.46" angle="187.31" type="Human" speed="10.35" pos="43.29" lane="-25166682#0_0" slope="0.00"/>
        <vehicle id="84" x="14276.59" y="17328.37" angle="187.31" type="Human" speed="7.92" pos="69.59" lane="-25166682#0_0" slope="0.00"/>
        <vehicle id="94" x="14192.53" y="17394.56" angle="6.25" type="Human" speed="8.57" pos="52.59" lane="-297047307_0" slope="0.00"/>
        <vehicle id="95" x="13816.19" y="16968.85" angle="352.81" type="Human" speed="12.16" pos="56.40" lane="133081987#0_0" slope="0.00"/>
        <vehicle id="96" x="13819.75" y="16940.22" angle="353.81" type="Human" speed="14.48" pos="27.55" lane="133081987#0_0" slope="0.00"/>
        <vehicle id="97" x="13836.25" y="16806.04" angle="353.39" type="Human" speed="3.84" pos="10.36" lane="-4936412_0" slope="0.00"/>
    </timestep>
    <timestep time="64.00">
        <vehicle id="1" x="13831.73" y="16843.79" angle="352.69" type="AV" speed="12.36" pos="3.12" lane="23686088#0_0" slope="0.00"/>
        <vehicle id="17" x="13836.85" y="16800.82" angle="353.39" type="Human" speed="0.00" pos="5.10" lane="-4936412_0" slope="0.00"/>
        <vehicle id="37" x="14284.79" y="17392.33" angle="187.31" type="AV" speed="0.00" pos="5.10" lane="-25166682#0_0" slope="0.00"/>
        <vehicle id="4" x="13798.39" y="17168.90" angle="355.61" type="AV" speed="12.98" pos="17.87" lane="133081985#1_0" slope="0.00"/>
        <vehicle id="5" x="14229.98" y="17327.79" angle="281.71" type="AV" speed="13.91" pos="40.57" lane="-23648008#0_0" slope="0.00"/>
        <vehicle id="52" x="14277.64" y="17317.91" angle="281.72" type="AV" speed="11.15" pos="6.31" lane=":274333875_4_0" slope="0.00"/>
        <vehicle id="60" x="14170.77" y="17402.69" angle="269.86" type="Human" speed="8.46" pos="14.13" lane="22959550#0_0" slope="0.00"/>
        <vehicle id="70" x="13821.45" y="16924.43" angle="353.87" type="AV" speed="15.12" pos="11.67" lane="133081987#0_0" slope="0.00"/>
        <vehicle id="71" x="14278.59" y="17344.00" angle="187.31" type="Human" speed="10.55" pos="53.84" lane="-25166682#0_0" slope="0.00"/>