<?xml version="1.0" encoding="UTF-8"?>

<!-- generated on 2025-05-06 14:27:40 by Eclipse SUMO sumo Version 1.22.0
<sumoConfiguration xmlns:xsi="http://www.w3.org/2001/XMLSchema-instance" xsi:noNamespaceSchemaLocation="http://sumo.dlr.de/xsd/sumoConfiguration.xsd">

    <input>
        <net-file value="/Users/coexistence/RouteRL/routerl/environment/../networks/ingolstadt/ingolstadt.net.xml"/>
        <route-files value="/Users/coexistence/RouteRL/routerl/environment/../networks/ingolstadt/route.rou.xml"/>
        <additional-files value="/Users/coexistence/RouteRL/routerl/environment/../networks/ingolstadt/det.add.xml"/>
    </input>

    <output>
        <fcd-output value="/Users/coexistence/RouteRL/routerl/environment/../networks/ingolstadt/fcd.xml"/>
        <summary-output value="/Users/coexistence/RouteRL/routerl/environment/../networks/ingolstadt/summary.xml"/>
        <tripinfo-output value="/Users/coexistence/RouteRL/routerl/environment/../networks/ingolstadt/tripinfo.xml"/>
    </output>

    <processing>
        <time-to-teleport value="-1"/>
    </processing>

    <report>
        <no-step-log value="true"/>
    </report>

    <random_number>
        <seed value="42"/>
    </random_number>

</sumoConfiguration>
-->

<fcd-export xmlns:xsi="http://www.w3.org/2001/XMLSchema-instance" xsi:noNamespaceSchemaLocation="http://sumo.dlr.de/xsd/fcd_file.xsd">
</fcd-export>
