<?xml version="1.0" encoding="UTF-8"?>

<!-- generated on 2025-05-06 20:27:29 by Eclipse SUMO sumo Version 1.22.0
<sumoConfiguration xmlns:xsi="http://www.w3.org/2001/XMLSchema-instance" xsi:noNamespaceSchemaLocation="http://sumo.dlr.de/xsd/sumoConfiguration.xsd">

    <input>
        <net-file value="/Users/coexistence/RouteRL/routerl/environment/../networks/cologne/cologne.net.xml"/>
        <route-files value="/Users/coexistence/RouteRL/routerl/environment/../networks/cologne/route.rou.xml"/>
        <additional-files value="/Users/coexistence/RouteRL/routerl/environment/../networks/cologne/det.add.xml"/>
    </input>

    <output>
        <fcd-output value="/Users/coexistence/RouteRL/routerl/environment/../networks/cologne/fcd.xml"/>
        <summary-output value="/Users/coexistence/RouteRL/routerl/environment/../networks/cologne/summary.xml"/>
        <tripinfo-output value="/Users/coexistence/RouteRL/routerl/environment/../networks/cologne/tripinfo.xml"/>
    </output>

    <processing>
        <time-to-teleport value="-1"/>
    </processing>

    <report>
        <no-step-log value="true"/>
    </report>

    <random_number>
        <seed value="42"/>
    </random_number>

</sumoConfiguration>
-->

<tripinfos xmlns:xsi="http://www.w3.org/2001/XMLSchema-instance" xsi:noNamespaceSchemaLocation="http://sumo.dlr.de/xsd/tripinfo_file.xsd">
