<?xml version="1.0" encoding="UTF-8"?>

<!-- generated on 2025-05-08 05:31:41 by Eclipse SUMO sumo Version 1.23.1
<sumoConfiguration xmlns:xsi="http://www.w3.org/2001/XMLSchema-instance" xsi:noNamespaceSchemaLocation="http://sumo.dlr.de/xsd/sumoConfiguration.xsd">

    <input>
        <net-file value="C:\Users\delphi\testreports\sumoExtra\git\tools\game\square/square.net.xml"/>
        <additional-files value="C:\Users\delphi\testreports\sumoExtra\git\tools\game\square/square.tll.xml.delay_based,C:\Users\delphi\testreports\sumoExtra\git\tools\game\square/square.poi.xml,C:\Users\delphi\testreports\sumoExtra\git\tools\game\square/square.rou.xml,C:\Users\delphi\testreports\sumoExtra\git\tools\game\input_additional.add.xml"/>
    </input>

    <output>
        <human-readable-time value="false"/>
        <tripinfo-output value="C:\Users\delphi\testreports\sumoExtra\git\tools\game\tripinfos.xml"/>
        <tripinfo-output.write-unfinished value="true"/>
        <tripinfo-output.write-undeparted value="true"/>
        <statistic-output value="C:\Users\delphi\testreports\sumoExtra\git\tools\game\square.stats.xml"/>
    </output>

    <time>
        <begin value="0"/>
        <end value="180"/>
        <step-length value=".1"/>
    </time>

    <report>
        <verbose value="false"/>
        <xml-validation value="never"/>
        <no-warnings value="true"/>
        <duration-log.statistics value="true"/>
        <no-step-log value="true"/>
    </report>

    <gui_only>
        <gui-settings-file value="C:\Users\delphi\testreports\sumoExtra\git\tools\game\square/settings.xml"/>
    </gui_only>

</sumoConfiguration>
-->

<meandata xmlns:xsi="http://www.w3.org/2001/XMLSchema-instance" xsi:noNamespaceSchemaLocation="http://sumo.dlr.de/xsd/meandata_file.xsd">
    <interval begin="0.00" end="180.00" id="dump">
        <edge id="A0A1" sampledSeconds="147.90" traveltime="10.04" overlapTraveltime="11.06" density="9.60" laneDensity="9.60" occupancy="4.78" waitingTime="12.40" timeLoss="64.79" speed="8.23" speedRelative="0.59" departed="0" arrived="0" entered="14" left="13" laneChangedFrom="0" laneChangedTo="0"/>
        <edge id="A0B0" sampledSeconds="273.83" traveltime="9.25" overlapTraveltime="10.06" density="17.77" laneDensity="17.77" occupancy="8.43" waitingTime="20.10" timeLoss="103.65" speed="9.01" speedRelative="0.65" departed="0" arrived="0" entered="28" left="26" laneChangedFrom="0" laneChangedTo="0"/>
        <edge id="A0bottom0" sampledSeconds="105.97" traveltime="13.91" overlapTraveltime="14.28" density="3.05" laneDensity="3.05" occupancy="1.50" waitingTime="0.00" timeLoss="4.34" speed="13.86" speedRelative="1.00" departed="0" arrived="8" entered="8" left="0" laneChangedFrom="0" laneChangedTo="0"/>
        <edge id="A0left0" sampledSeconds="194.48" traveltime="13.91" overlapTraveltime="14.27" density="5.60" laneDensity="5.60" occupancy="2.75" waitingTime="0.00" timeLoss="8.47" speed="13.87" speedRelative="1.00" departed="0" arrived="14" entered="16" left="0" laneChangedFrom="0" laneChangedTo="0"/>
        <edge id="A1A0" sampledSeconds="91.16" traveltime="10.27" overlapTraveltime="11.40" density="5.92" laneDensity="5.92" occupancy="2.77" waitingTime="20.60" timeLoss="41.00" speed="7.95" speedRelative="0.57" departed="0" arrived="0" entered="8" left="8" laneChangedFrom="0" laneChangedTo="0"/>
        <edge id="A1B1" sampledSeconds="219.29" traveltime="8.23" overlapTraveltime="9.05" density="14.23" laneDensity="14.23" occupancy="6.85" waitingTime="7.20" timeLoss="67.22" speed="10.03" speedRelative="0.72" departed="0" arrived="0" entered="25" left="23" laneChangedFrom="0" laneChangedTo="0"/>
        <edge id="A1left1" sampledSeconds="225.49" traveltime="13.88" overlapTraveltime="14.25" density="6.50" laneDensity="6.50" occupancy="3.25" waitingTime="0.00" timeLoss="12.83" speed="13.89" speedRelative="1.00" departed="0" arrived="17" entered="17" left="0" laneChangedFrom="0" laneChangedTo="0"/>
        <edge id="A1top0" sampledSeconds="147.65" traveltime="14.03" overlapTraveltime="14.41" density="4.25" laneDensity="4.25" occupancy="2.15" waitingTime="0.00" timeLoss="12.78" speed="13.74" speedRelative="0.99" departed="0" arrived="11" entered="11" left="0" laneChangedFrom="0" laneChangedTo="0"/>
        <edge id="B0A0" sampledSeconds="172.77" traveltime="9.34" overlapTraveltime="10.19" density="11.21" laneDensity="11.21" occupancy="5.29" waitingTime="12.80" timeLoss="67.05" speed="8.89" speedRelative="0.64" departed="0" arrived="0" entered="17" left="17" laneChangedFrom="0" laneChangedTo="0"/>
        <edge id="B0B1" sampledSeconds="117.72" traveltime="10.55" overlapTraveltime="11.59" density="7.64" laneDensity="7.64" occupancy="3.57" waitingTime="15.10" timeLoss="54.93" speed="7.82" speedRelative="0.56" departed="0" arrived="0" entered="11" left="10" laneChangedFrom="0" laneChangedTo="0"/>
        <edge id="B0bottom1" sampledSeconds="120.95" traveltime="13.93" overlapTraveltime="14.29" density="3.49" laneDensity="3.49" occupancy="1.70" waitingTime="0.00" timeLoss="5.16" speed="13.85" speedRelative="1.00" departed="0" arrived="9" entered="11" left="0" laneChangedFrom="0" laneChangedTo="0"/>
        <edge id="B0right0" sampledSeconds="341.69" traveltime="14.23" overlapTraveltime="14.60" density="9.85" laneDensity="9.85" occupancy="4.89" waitingTime="0.00" timeLoss="21.71" speed="13.55" speedRelative="0.98" departed="0" arrived="24" entered="26" left="0" laneChangedFrom="0" laneChangedTo="0"/>
        <edge id="B1A1" sampledSeconds="187.72" traveltime="9.89" overlapTraveltime="10.59" density="12.18" laneDensity="12.18" occupancy="5.86" waitingTime="16.00" timeLoss="78.51" speed="8.56" speedRelative="0.62" departed="0" arrived="0" entered="18" left="17" laneChangedFrom="0" laneChangedTo="0"/>
        <edge id="B1B0" sampledSeconds="113.75" traveltime="9.49" overlapTraveltime="10.34" density="7.38" laneDensity="7.38" occupancy="3.45" waitingTime="9.70" timeLoss="44.86" speed="8.76" speedRelative="0.63" departed="0" arrived="0" entered="11" left="11" laneChangedFrom="0" laneChangedTo="0"/>
        <edge id="B1right1" sampledSeconds="252.24" traveltime="13.96" overlapTraveltime="14.33" density="7.27" laneDensity="7.27" occupancy="3.62" waitingTime="0.00" timeLoss="13.99" speed="13.81" speedRelative="0.99" departed="0" arrived="18" entered="21" left="0" laneChangedFrom="0" laneChangedTo="0"/>
        <edge id="B1top1" sampledSeconds="157.59" traveltime="14.17" overlapTraveltime="14.56" density="4.54" laneDensity="4.54" occupancy="2.34" waitingTime="0.00" timeLoss="9.47" speed="13.60" speedRelative="0.98" departed="0" arrived="9" entered="12" left="0" laneChangedFrom="0" laneChangedTo="0"/>
        <edge id="bottom0A0" sampledSeconds="246.83" traveltime="17.97" overlapTraveltime="19.10" density="7.11" laneDensity="7.11" occupancy="3.65" waitingTime="19.40" timeLoss="74.64" speed="10.37" speedRelative="0.75" departed="14" arrived="0" entered="0" left="13" laneChangedFrom="0" laneChangedTo="0"/>
        <edge id="bottom1B0" sampledSeconds="233.05" traveltime="18.07" overlapTraveltime="19.06" density="6.72" laneDensity="6.72" occupancy="3.28" waitingTime="25.00" timeLoss="68.28" speed="10.38" speedRelative="0.75" departed="13" arrived="0" entered="0" left="11" laneChangedFrom="0" laneChangedTo="0"/>
        <edge id="left0A0" sampledSeconds="488.32" traveltime="16.54" overlapTraveltime="17.30" density="14.07" laneDensity="14.07" occupancy="7.10" waitingTime="14.10" timeLoss="102.35" speed="11.44" speedRelative="0.82" departed="29" arrived="0" entered="0" left="29" laneChangedFrom="0" laneChangedTo="0"/>
        <edge id="left1A1" sampledSeconds="383.13" traveltime="16.01" overlapTraveltime="16.78" density="11.04" laneDensity="11.04" occupancy="5.49" waitingTime="17.20" timeLoss="74.00" speed="11.79" speedRelative="0.85" departed="24" arrived="0" entered="0" left="23" laneChangedFrom="0" laneChangedTo="0"/>
        <edge id="right0B0" sampledSeconds="327.09" traveltime="16.55" overlapTraveltime="17.24" density="9.43" laneDensity="9.43" occupancy="4.63" waitingTime="14.40" timeLoss="68.29" speed="11.47" speedRelative="0.83" departed="21" arrived="0" entered="0" left="17" laneChangedFrom="0" laneChangedTo="0"/>
        <edge id="right1B1" sampledSeconds="309.10" traveltime="15.74" overlapTraveltime="16.59" density="8.91" laneDensity="8.91" occupancy="4.42" waitingTime="14.30" timeLoss="57.77" speed="11.93" speedRelative="0.86" departed="20" arrived="0" entered="0" left="19" laneChangedFrom="0" laneChangedTo="0"/>
        <edge id="top0A1" sampledSeconds="139.25" traveltime="15.19" overlapTraveltime="16.11" density="4.01" laneDensity="4.01" occupancy="1.96" waitingTime="7.00" timeLoss="20.76" speed="12.28" speedRelative="0.88" departed="9" arrived="0" entered="0" left="8" laneChangedFrom="0" laneChangedTo="0"/>
        <edge id="top1B1" sampledSeconds="198.73" traveltime="16.74" overlapTraveltime="17.80" density="5.73" laneDensity="5.73" occupancy="2.83" waitingTime="8.10" timeLoss="45.78" speed="11.12" speedRelative="0.80" departed="12" arrived="0" entered="0" left="11" laneChangedFrom="0" laneChangedTo="0"/>
    </interval>
    <interval begin="0.00" end="180.00" id="hbefa">
        <edge id="A0A1" sampledSeconds="134.49" CO_abs="2128.668719" CO2_abs="461690.222160" HC_abs="13.328431" PMx_abs="24.652103" NOx_abs="338.585851" fuel_abs="149282.395957" electricity_abs="0"
            CO_normed="497.352504" CO2_normed="107871.547234" HC_normed="3.114119" PMx_normed="5.759837" NOx_normed="79.108844" fuel_normed="34879.064476" electricity_normed="0"
            traveltime="10.04" CO_perVeh="158.849007" CO2_perVeh="34453.004650" HC_perVeh="0.994616" PMx_perVeh="1.839630" NOx_perVeh="25.266508" fuel_perVeh="11139.995684" electricity_perVeh="0"/>
        <edge id="A0B0" sampledSeconds="252.33" CO_abs="3140.186635" CO2_abs="606404.247767" HC_abs="20.668871" PMx_abs="44.543098" NOx_abs="268.095221" fuel_abs="196459.611403" electricity_abs="0"
            CO_normed="733.688466" CO2_normed="141683.235459" HC_normed="4.829176" PMx_normed="10.407266" NOx_normed="62.639070" fuel_normed="45901.778365" electricity_normed="0"
            traveltime="9.25" CO_perVeh="115.140380" CO2_perVeh="22234.861742" HC_perVeh="0.757860" PMx_perVeh="1.633250" NOx_perVeh="9.830175" fuel_perVeh="7203.531825" electricity_perVeh="0"/>
        <edge id="A0bottom0" sampledSeconds="105.97" CO_abs="2060.250757" CO2_abs="306562.251192" HC_abs="13.779122" PMx_abs="34.482406" NOx_abs="108.166361" fuel_abs="99383.430929" electricity_abs="0"
            CO_normed="213.718958" CO2_normed="31801.063402" HC_normed="1.429369" PMx_normed="3.577013" NOx_normed="11.220577" fuel_normed="10309.484536" electricity_normed="0"
            traveltime="13.91" CO_perVeh="270.526560" CO2_perVeh="40253.950132" HC_perVeh="1.809303" PMx_perVeh="4.527802" NOx_perVeh="14.203064" fuel_perVeh="13049.798718" electricity_perVeh="0"/>
        <edge id="A0left0" sampledSeconds="194.48" CO_abs="3753.745315" CO2_abs="544314.325012" HC_abs="25.096821" PMx_abs="62.051347" NOx_abs="193.988541" fuel_abs="176459.568967" electricity_abs="0"
            CO_normed="389.392668" CO2_normed="56464.141599" HC_normed="2.603405" PMx_normed="6.436862" NOx_normed="20.123293" fuel_normed="18304.934540" electricity_normed="0"
            traveltime="13.91" CO_perVeh="268.394514" CO2_perVeh="38918.724228" HC_perVeh="1.794434" PMx_perVeh="4.436700" NOx_perVeh="13.870270" fuel_perVeh="12616.940224" electricity_perVeh="0"/>
        <edge id="A1A0" sampledSeconds="82.15" CO_abs="1151.353131" CO2_abs="206288.704707" HC_abs="7.650280" PMx_abs="14.669799" NOx_abs="71.953020" fuel_abs="66875.870633" electricity_abs="0"
            CO_normed="269.007741" CO2_normed="48198.295492" HC_normed="1.787449" PMx_normed="3.427523" NOx_normed="16.811453" fuel_normed="15625.203419" electricity_normed="0"
            traveltime="10.27" CO_perVeh="143.919570" CO2_perVeh="25786.164858" HC_perVeh="0.956288" PMx_perVeh="1.833730" NOx_perVeh="8.994154" fuel_perVeh="8359.508717" electricity_perVeh="0"/>
        <edge id="A1B1" sampledSeconds="200.05" CO_abs="2928.831840" CO2_abs="597253.152146" HC_abs="18.783555" PMx_abs="42.399664" NOx_abs="387.420290" fuel_abs="193234.327848" electricity_abs="0"
            CO_normed="684.306505" CO2_normed="139545.129006" HC_normed="4.388681" PMx_normed="9.906463" NOx_normed="90.518759" fuel_normed="45148.207441" electricity_normed="0"
            traveltime="8.23" CO_perVeh="120.479275" CO2_perVeh="24568.370886" HC_perVeh="0.772673" PMx_perVeh="1.744136" NOx_perVeh="15.936769" fuel_perVeh="7948.811350" electricity_perVeh="0"/>
        <edge id="A1left1" sampledSeconds="225.42" CO_abs="4388.505154" CO2_abs="674104.544782" HC_abs="29.073104" PMx_abs="72.499312" NOx_abs="337.646820" fuel_abs="218341.215333" electricity_abs="0"
            CO_normed="455.239124" CO2_normed="69927.857342" HC_normed="3.015882" PMx_normed="7.520676" NOx_normed="35.025604" fuel_normed="22649.503665" electricity_normed="0"
            traveltime="13.88" CO_perVeh="270.235256" CO2_perVeh="41509.992048" HC_perVeh="1.790263" PMx_perVeh="4.464361" NOx_perVeh="20.791607" fuel_perVeh="13445.009654" electricity_perVeh="0"/>
        <edge id="A1top0" sampledSeconds="147.58" CO_abs="3221.919938" CO2_abs="501027.540035" HC_abs="21.216933" PMx_abs="48.279571" NOx_abs="275.049616" fuel_abs="162230.324825" electricity_abs="0"
            CO_normed="334.224060" CO2_normed="51973.811207" HC_normed="2.200927" PMx_normed="5.008254" NOx_normed="28.532118" fuel_normed="16828.871870" electricity_normed="0"
            traveltime="14.03" CO_perVeh="306.326584" CO2_perVeh="47635.589291" HC_perVeh="2.017217" PMx_perVeh="4.590218" NOx_perVeh="26.150560" fuel_perVeh="15424.176331" electricity_perVeh="0"/>
        <edge id="B0A0" sampledSeconds="158.71" CO_abs="2341.371595" CO2_abs="416958.918157" HC_abs="15.550469" PMx_abs="30.801800" NOx_abs="140.480082" fuel_abs="135171.803927" electricity_abs="0"
            CO_normed="547.049438" CO2_normed="97420.307981" HC_normed="3.633287" PMx_normed="7.196682" NOx_normed="32.822449" fuel_normed="31582.197179" electricity_normed="0"
            traveltime="9.34" CO_perVeh="137.854643" CO2_perVeh="24549.594258" HC_perVeh="0.915576" PMx_perVeh="1.813540" NOx_perVeh="8.271148" fuel_perVeh="7958.608863" electricity_perVeh="0"/>
        <edge id="B0B1" sampledSeconds="107.25" CO_abs="1698.351032" CO2_abs="298693.762936" HC_abs="11.236919" PMx_abs="18.020249" NOx_abs="99.817674" fuel_abs="96831.835392" electricity_abs="0"
            CO_normed="396.810989" CO2_normed="69788.262368" HC_normed="2.625448" PMx_normed="4.210339" NOx_normed="23.321886" fuel_normed="22624.260606" electricity_normed="0"
            traveltime="10.55" CO_perVeh="167.036151" CO2_perVeh="29377.116799" HC_perVeh="1.105173" PMx_perVeh="1.772327" NOx_perVeh="9.817264" fuel_perVeh="9523.600728" electricity_perVeh="0"/>
        <edge id="B0bottom1" sampledSeconds="120.95" CO_abs="2490.753796" CO2_abs="359015.832103" HC_abs="16.635575" PMx_abs="39.140189" NOx_abs="127.037321" fuel_abs="116388.113044" electricity_abs="0"
            CO_normed="258.376950" CO2_normed="37242.306235" HC_normed="1.725682" PMx_normed="4.060186" NOx_normed="13.178145" fuel_normed="12073.455710" electricity_normed="0"
            traveltime="13.93" CO_perVeh="286.770571" CO2_perVeh="41334.946612" HC_perVeh="1.915321" PMx_perVeh="4.506368" NOx_perVeh="14.626321" fuel_perVeh="13400.234777" electricity_perVeh="0"/>
        <edge id="B0right0" sampledSeconds="341.65" CO_abs="6719.766570" CO2_abs="1010679.856877" HC_abs="44.717566" PMx_abs="106.165853" NOx_abs="422.828609" fuel_abs="327521.508649" electricity_abs="0"
            CO_normed="697.071221" CO2_normed="104842.308805" HC_normed="4.638752" PMx_normed="11.013055" NOx_normed="43.861889" fuel_normed="33975.260233" electricity_normed="0"
            traveltime="14.23" CO_perVeh="279.801569" CO2_perVeh="42083.278794" HC_perVeh="1.861976" PMx_perVeh="4.420596" NOx_perVeh="17.605985" fuel_perVeh="13637.532069" electricity_perVeh="0"/>
        <edge id="B1A1" sampledSeconds="175.77" CO_abs="2546.443710" CO2_abs="466198.246375" HC_abs="16.796000" PMx_abs="30.919902" NOx_abs="179.027370" fuel_abs="151084.175589" electricity_abs="0"
            CO_normed="594.963484" CO2_normed="108924.823919" HC_normed="3.924299" PMx_normed="7.224276" NOx_normed="41.828825" fuel_normed="35300.041025" electricity_normed="0"
            traveltime="9.89" CO_perVeh="143.318954" CO2_perVeh="26238.571378" HC_perVeh="0.945313" PMx_perVeh="1.740234" NOx_perVeh="10.076019" fuel_perVeh="8503.320114" electricity_perVeh="0"/>
        <edge id="B1B0" sampledSeconds="104.39" CO_abs="1927.459147" CO2_abs="316445.791239" HC_abs="12.755942" PMx_abs="20.299386" NOx_abs="105.548080" fuel_abs="102586.746420" electricity_abs="0"
            CO_normed="450.340922" CO2_normed="73935.932532" HC_normed="2.980360" PMx_normed="4.742847" NOx_normed="24.660766" fuel_normed="23968.865986" electricity_normed="0"
            traveltime="9.49" CO_perVeh="175.223559" CO2_perVeh="28767.799204" HC_perVeh="1.159631" PMx_perVeh="1.845399" NOx_perVeh="9.595280" fuel_perVeh="9326.067856" electricity_perVeh="0"/>
        <edge id="B1right1" sampledSeconds="252.21" CO_abs="5092.330155" CO2_abs="760789.267614" HC_abs="33.899259" PMx_abs="81.365106" NOx_abs="330.973217" fuel_abs="246517.388999" electricity_abs="0"
            CO_normed="528.250016" CO2_normed="78920.048508" HC_normed="3.516521" PMx_normed="8.440364" NOx_normed="34.333321" fuel_normed="25572.343257" electricity_normed="0"
            traveltime="13.96" CO_perVeh="281.857957" CO2_perVeh="42109.309962" HC_perVeh="1.876307" PMx_perVeh="4.503518" NOx_perVeh="18.319204" fuel_perVeh="13644.615646" electricity_perVeh="0"/>
        <edge id="B1top1" sampledSeconds="157.52" CO_abs="2933.076495" CO2_abs="545358.014338" HC_abs="19.065770" PMx_abs="50.592543" NOx_abs="389.550186" fuel_abs="176401.473592" electricity_abs="0"
            CO_normed="304.261047" CO2_normed="56572.408126" HC_normed="1.977777" PMx_normed="5.248189" NOx_normed="40.409770" fuel_normed="18298.908049" electricity_normed="0"
            traveltime="14.17" CO_perVeh="263.946846" CO2_perVeh="49076.636192" HC_perVeh="1.715724" PMx_perVeh="4.552811" NOx_perVeh="35.055527" fuel_perVeh="15874.326068" electricity_perVeh="0"/>
        <edge id="bottom0A0" sampledSeconds="232.16" CO_abs="2611.134771" CO2_abs="554786.596384" HC_abs="16.423985" PMx_abs="47.910999" NOx_abs="411.377179" fuel_abs="179363.923558" electricity_abs="0"
            CO_normed="270.864603" CO2_normed="57550.476803" HC_normed="1.703733" PMx_normed="4.970021" NOx_normed="42.673981" fuel_normed="18606.216137" electricity_normed="0"
            traveltime="17.97" CO_perVeh="202.097409" CO2_perVeh="42939.542920" HC_perVeh="1.271189" PMx_perVeh="3.708230" NOx_perVeh="31.839897" fuel_perVeh="13882.463895" electricity_perVeh="0"/>
        <edge id="bottom1B0" sampledSeconds="221.58" CO_abs="2363.506368" CO2_abs="418470.976541" HC_abs="15.868270" PMx_abs="45.002654" NOx_abs="148.934012" fuel_abs="135662.808168" electricity_abs="0"
            CO_normed="245.177009" CO2_normed="43409.852338" HC_normed="1.646086" PMx_normed="4.668325" NOx_normed="15.449586" fuel_normed="14072.905412" electricity_normed="0"
            traveltime="18.07" CO_perVeh="192.750230" CO2_perVeh="34127.421130" HC_perVeh="1.294100" PMx_perVeh="3.670086" NOx_perVeh="12.145965" fuel_perVeh="11063.662824" electricity_perVeh="0"/>
        <edge id="left0A0" sampledSeconds="466.71" CO_abs="5506.789696" CO2_abs="1049310.265392" HC_abs="35.849337" PMx_abs="106.452251" NOx_abs="591.097646" fuel_abs="339668.276655" electricity_abs="0"
            CO_normed="571.243744" CO2_normed="108849.612593" HC_normed="3.718811" PMx_normed="11.042765" NOx_normed="61.317183" fuel_normed="35235.298408" electricity_normed="0"
            traveltime="16.54" CO_perVeh="195.161923" CO2_perVeh="37187.802885" HC_perVeh="1.270509" PMx_perVeh="3.772693" NOx_perVeh="20.948640" fuel_perVeh="12037.923706" electricity_perVeh="0"/>
        <edge id="left1A1" sampledSeconds="365.53" CO_abs="4574.911933" CO2_abs="798672.774888" HC_abs="30.226836" PMx_abs="87.681319" NOx_abs="389.070316" fuel_abs="258687.842272" electricity_abs="0"
            CO_normed="474.575927" CO2_normed="82849.872914" HC_normed="3.135564" PMx_normed="9.095573" NOx_normed="40.359991" fuel_normed="26834.838410" electricity_normed="0"
            traveltime="16.01" CO_perVeh="200.366051" CO2_perVeh="34979.232847" HC_perVeh="1.323836" PMx_perVeh="3.840153" NOx_perVeh="17.039996" fuel_perVeh="11329.674122" electricity_perVeh="0"/>
        <edge id="right0B0" sampledSeconds="314.81" CO_abs="3613.804991" CO2_abs="617398.058474" HC_abs="24.248059" PMx_abs="70.378384" NOx_abs="218.423756" fuel_abs="200152.410188" electricity_abs="0"
            CO_normed="374.876036" CO2_normed="64045.441750" HC_normed="2.515359" PMx_normed="7.300662" NOx_normed="22.658066" fuel_normed="20762.698152" electricity_normed="0"
            traveltime="16.55" CO_perVeh="189.938549" CO2_perVeh="32449.922433" HC_perVeh="1.274458" PMx_perVeh="3.699029" NOx_perVeh="11.480169" fuel_perVeh="10519.842258" electricity_perVeh="0"/>
        <edge id="right1B1" sampledSeconds="293.21" CO_abs="3589.160598" CO2_abs="638479.271378" HC_abs="23.641444" PMx_abs="71.031216" NOx_abs="338.279937" fuel_abs="206744.936306" electricity_abs="0"
            CO_normed="372.319564" CO2_normed="66232.289562" HC_normed="2.452432" PMx_normed="7.368383" NOx_normed="35.091280" fuel_normed="21446.570156" electricity_normed="0"
            traveltime="15.74" CO_perVeh="192.619550" CO2_perVeh="34265.279111" HC_perVeh="1.268766" PMx_perVeh="3.812034" NOx_perVeh="18.154476" fuel_perVeh="11095.384400" electricity_perVeh="0"/>
        <edge id="top0A1" sampledSeconds="131.54" CO_abs="1790.344938" CO2_abs="277002.452418" HC_abs="12.026729" PMx_abs="34.250624" NOx_abs="100.387579" fuel_abs="89800.693289" electricity_abs="0"
            CO_normed="185.720429" CO2_normed="28734.694234" HC_normed="1.247586" PMx_normed="3.552969" NOx_normed="10.413649" fuel_normed="9315.424615" electricity_normed="0"
            traveltime="15.19" CO_perVeh="206.771257" CO2_perVeh="31991.681569" HC_perVeh="1.388996" PMx_perVeh="3.955687" NOx_perVeh="11.594004" fuel_perVeh="10371.298735" electricity_perVeh="0"/>
        <edge id="top1B1" sampledSeconds="187.07" CO_abs="2054.422256" CO2_abs="399170.013109" HC_abs="13.386644" PMx_abs="41.821237" NOx_abs="219.814429" fuel_abs="129224.582537" electricity_abs="0"
            CO_normed="213.114342" CO2_normed="41407.677708" HC_normed="1.388656" PMx_normed="4.338303" NOx_normed="22.802327" fuel_normed="13405.039682" electricity_normed="0"
            traveltime="16.74" CO_perVeh="183.886190" CO2_perVeh="35728.707893" HC_perVeh="1.198205" PMx_perVeh="3.743314" NOx_perVeh="19.675039" fuel_perVeh="11566.568656" electricity_perVeh="0"/>
    </interval>
</meandata>
